3
CONF1 energy= -0.12345
O   0.000000   0.000000   0.000000
H   0.957200   0.000000   0.000000
H  -0.239900   0.926700   0.000000
3
CONF5 energy= -0.12346
O   0.000000   0.000000   0.000000
H   0.957200   0.000000   0.100000
H  -0.239900   0.926700   0.100000
